Title: **.subckt test_opamp
Date: Mon Jul  5 13:50:26  2021
Plotname: AC Analysis
Flags: complex
No. Variables: 39
No. Points: 101     
Variables:
	0	frequency	frequency	grid=3
	1	v(net2)	voltage
	2	v(x1.net2)	voltage
	3	v(net1)	voltage
	4	v(x1.net1)	voltage
	5	v(x1.net3)	voltage
	6	v(net5)	voltage
	7	v(ac)	voltage
	8	v(net3)	voltage
	9	v(net4)	voltage
	10	v(sky130_fd_pr__esd_nfet_05v0_nvt.pm3)	voltage
	11	v()	voltage
	12	v(m.x1.xm8.msky130_fd_pr__pfet_01v8_lvt#dbody)	voltage
	13	v(m.x1.xm8.msky130_fd_pr__pfet_01v8_lvt#body)	voltage
	14	v(m.x1.xm8.msky130_fd_pr__pfet_01v8_lvt#sbody)	voltage
	15	v(m.x1.xm7.msky130_fd_pr__pfet_01v8_lvt#dbody)	voltage
	16	v(m.x1.xm7.msky130_fd_pr__pfet_01v8_lvt#body)	voltage
	17	v(m.x1.xm7.msky130_fd_pr__pfet_01v8_lvt#sbody)	voltage
	18	v(m.x1.xm6.msky130_fd_pr__pfet_01v8_lvt#dbody)	voltage
	19	v(m.x1.xm6.msky130_fd_pr__pfet_01v8_lvt#body)	voltage
	20	v(m.x1.xm6.msky130_fd_pr__pfet_01v8_lvt#sbody)	voltage
	21	v(m.x1.xm5.msky130_fd_pr__nfet_01v8_lvt#dbody)	voltage
	22	v(m.x1.xm5.msky130_fd_pr__nfet_01v8_lvt#body)	voltage
	23	v(m.x1.xm5.msky130_fd_pr__nfet_01v8_lvt#sbody)	voltage
	24	v(m.x1.xm4.msky130_fd_pr__nfet_01v8_lvt#dbody)	voltage
	25	v(m.x1.xm4.msky130_fd_pr__nfet_01v8_lvt#body)	voltage
	26	v(m.x1.xm4.msky130_fd_pr__nfet_01v8_lvt#sbody)	voltage
	27	v(m.x1.xm3.msky130_fd_pr__nfet_01v8_lvt#dbody)	voltage
	28	v(m.x1.xm3.msky130_fd_pr__nfet_01v8_lvt#body)	voltage
	29	v(m.x1.xm3.msky130_fd_pr__nfet_01v8_lvt#sbody)	voltage
	30	v(m.x1.xm2.msky130_fd_pr__nfet_01v8_lvt#dbody)	voltage
	31	v(m.x1.xm2.msky130_fd_pr__nfet_01v8_lvt#body)	voltage
	32	v(m.x1.xm2.msky130_fd_pr__nfet_01v8_lvt#sbody)	voltage
	33	v(m.x1.xm1.msky130_fd_pr__nfet_01v8_lvt#dbody)	voltage
	34	v(m.x1.xm1.msky130_fd_pr__nfet_01v8_lvt#body)	voltage
	35	v(m.x1.xm1.msky130_fd_pr__nfet_01v8_lvt#sbody)	voltage
	36	i(v3)	current
	37	i(v2)	current
	38	i(v1)	current
Values:
0		1.000000000000000e+00,4.645225908352378e-310
	-2.110774027872941e-14,-1.929800427339666e-07
	-8.398073324961803e-01,3.427605593307663e-08
	9.999999999994418e-01,-5.541373520939054e-19
	7.203916066175753e-01,4.113053411597852e-09
	3.197949040017043e+01,-2.564589038436385e-06
	0.000000000000000e+00,0.000000000000000e+00
	-5.571884972074869e+02,4.968689878533005e-05
	0.000000000000000e+00,0.000000000000000e+00
	1.000000000000000e+00,0.000000000000000e+00
	0.000000000000000e+00,0.000000000000000e+00
	0.000000000000000e+00,0.000000000000000e+00
	-1.744360869093523e-08,-4.530904525973599e-11
	-7.027787921174659e-09,-1.601529340242604e-11
	-3.513891651991777e-09,-8.007637967601481e-12
	-2.624430381022928e-11,-1.089343864467759e-13
	-1.049878962021001e-11,-9.982974899741663e-14
	-5.249670380722085e-12,-4.991591698243317e-14
	9.994058459950197e-10,2.776095088024105e-12
	3.998376891214062e-10,1.058132601138359e-12
	1.999191044272822e-10,5.290672836117582e-13
	-1.741761133164994e-08,-4.243933107275297e-11
	-6.975802394284834e-09,-1.727534374712909e-11
	-3.487903578992767e-09,-8.637680142193506e-12
	2.251223936830607e-11,7.254515784467620e-14
	9.004913205085538e-12,4.238368494074319e-14
	4.502464701794786e-12,2.119187052528216e-14
	1.003869088483778e-09,2.247271529798488e-11
	4.087636490523051e-10,9.243345242894119e-12
	2.223916154441243e-10,5.120978733464117e-12
	-2.174126726608338e-11,-2.121655622908672e-13
	-1.492162386023986e-12,5.130902015971027e-13
	1.726371506009707e-11,7.558513608388000e-13
	4.202810904224784e-20,-6.030570926727796e-18
	5.988580863300101e-20,-2.412267058689065e-18
	2.994313347474602e-20,-1.206199539694407e-18
	4.046799408660091e-19,5.479456298691488e-12
	-5.582114681601524e-07,-5.541373520939053e-13
	3.167453913086578e-03,-1.690162063901952e-10
1		1.258925411794167e+00,4.645225908352378e-310
	-3.345351387599535e-14,-2.429474797669135e-07
	-8.398073324961759e-01,4.315099783022778e-08
	9.999999999994418e-01,-6.976175941753482e-19
	7.203916066175761e-01,5.178027459927131e-09
	3.197949040017031e+01,-3.228626311296321e-06
	0.000000000000000e+00,0.000000000000000e+00
	-5.571884972074845e+02,6.255209951409650e-05
	0.000000000000000e+00,0.000000000000000e+00
	1.000000000000000e+00,0.000000000000000e+00
	0.000000000000000e+00,0.000000000000000e+00
	0.000000000000000e+00,0.000000000000000e+00
	-1.744360869330547e-08,-5.704070846161345e-11
	-7.027787922024035e-09,-2.016205984165352e-11
	-3.513891652416465e-09,-1.008101892586126e-11
	-2.624430381282964e-11,-1.371402673160516e-13
	-1.049878962259311e-11,-1.256782078658804e-13
	-5.249670381913660e-12,-6.284041634219280e-14
	9.994058461260420e-10,3.494896651870498e-12
	3.998376891726553e-10,1.332110020620937e-12
	1.999191044529068e-10,6.660562478877516e-13
	-1.741761133384778e-08,-5.342795234703429e-11
	-6.975802395154464e-09,-2.174836924074019e-11
	-3.487903579427583e-09,-1.087419502995721e-11
	2.251223938283817e-11,9.132894271327993e-14
	9.004913234492865e-12,5.335789801737536e-14
	4.502464716498578e-12,2.667898432772752e-14
	1.003869089529792e-09,2.829147236064860e-11
	4.087636494696968e-10,1.163668221626609e-11
	2.223916156511548e-10,6.446930260815466e-12
	-2.174126728060582e-11,-2.671006178755669e-13
	-1.492162392690825e-12,6.459422933331869e-13
	1.726371505509658e-11,9.515604856991696e-13
	6.661006391307160e-20,-7.592038990669645e-18
	9.491261042747175e-20,-3.036864305040798e-18
	4.745666840507918e-20,-1.518515254627318e-18
	6.413744834041016e-19,6.898226777238303e-12
	-5.582114681601524e-07,-6.976175941753482e-13
	3.167453913086576e-03,-2.127787972296638e-10
2		1.584893192461114e+00,4.645225908352378e-310
	-5.302024640596811e-14,-3.058527560099142e-07
	-8.398073324961670e-01,5.432388771274757e-08
	9.999999999994418e-01,-8.782485170220540e-19
	7.203916066175775e-01,6.518750352270088e-09
	3.197949040017013e+01,-4.064599708478182e-06
	0.000000000000000e+00,0.000000000000000e+00
	-5.571884972074807e+02,7.874842763937321e-05
	0.000000000000000e+00,0.000000000000000e+00
	1.000000000000000e+00,0.000000000000000e+00
	0.000000000000000e+00,0.000000000000000e+00
	0.000000000000000e+00,0.000000000000000e+00
	-1.744360869706205e-08,-7.180999738906727e-11
	-7.027787923370207e-09,-2.538252948877213e-11
	-3.513891653089552e-09,-1.269125090254459e-11
	-2.624430381695090e-11,-1.726493675044207e-13
	-1.049878962637004e-11,-1.582194895911048e-13
	-5.249670383802169e-12,-7.911139702091119e-14
	9.994058463336990e-10,4.399814206634098e-12
	3.998376892538799e-10,1.677027156265340e-12
	1.999191044935193e-10,8.385151361501612e-13
	-1.741761133733110e-08,-6.726180690980885e-11
	-6.975802396532737e-09,-2.737957470225027e-11
	-3.487903580116720e-09,-1.368980045601888e-11
	2.251223940586999e-11,1.149763268140380e-13
	9.004913281100337e-12,6.717361373398746e-14
	4.502464739802517e-12,3.358685133103049e-14
	1.003869091187611e-09,3.561685349189264e-11
	4.087636501312179e-10,1.464971495103058e-11
	2.223916159792760e-10,8.116204333405353e-12
	-2.174126730362227e-11,-3.362597553494644e-13
	-1.492162403257037e-12,8.131931676297558e-13
	1.726371504717134e-11,1.197943676305889e-12
	1.055698368452260e-19,-9.557810819439967e-18
	1.504263501452124e-19,-3.823185655409969e-18
	7.521375069209377e-20,-1.911697447059199e-18
	1.016510052565418e-18,8.684352986184237e-12
	-5.582114681601524e-07,-8.782485170220540e-13
	3.167453913086567e-03,-2.678726349234208e-10
3		1.995262314968880e+00,4.645225908352378e-310
	-8.403142759142892e-14,-3.850458068081570e-07
	-8.398073324961546e-01,6.838972270902806e-08
	9.999999999994418e-01,-1.105649375949599e-18
	7.203916066175797e-01,8.206620471614540e-09
	3.197949040016985e+01,-5.117027861774308e-06
	0.000000000000000e+00,0.000000000000000e+00
	-5.571884972074752e+02,9.913839669404030e-05
	0.000000000000000e+00,0.000000000000000e+00
	1.000000000000000e+00,0.000000000000000e+00
	0.000000000000000e+00,0.000000000000000e+00
	0.000000000000000e+00,0.000000000000000e+00
	-1.744360870301584e-08,-9.040343053396867e-11
	-7.027787925503748e-09,-3.195471138902971e-11
	-3.513891654156322e-09,-1.597733826866888e-11
	-2.624430382348270e-11,-2.173526760815021e-13
	-1.049878963235609e-11,-1.991865360873416e-13
	-5.249670386795264e-12,-9.959534807216100e-14
	9.994058466628131e-10,5.539037911904612e-12
	3.998376893826120e-10,2.111252103291328e-12
	1.999191045578856e-10,1.055628013073475e-12
	-1.741761134285181e-08,-8.467759796195004e-11
	-6.975802398717156e-09,-3.446884235677926e-11
	-3.487903581208932e-09,-1.723443767647338e-11
	2.251223944237297e-11,1.447466195809359e-13
	9.004913354968204e-12,8.456656933174655e-14
	4.502464776736772e-12,4.228334064277907e-14
	1.003869093815078e-09,4.483896194909308e-11
	4.087636511796580e-10,1.844289842739319e-11
	2.223916164993131e-10,1.021769588263787e-11
	-2.174126734010093e-11,-4.233259509731118e-13
	-1.492162420003368e-12,1.023749543426503e-12
	1.726371503461069e-11,1.508121735999617e-12
	1.673169157452269e-19,-1.203257093518983e-17
	2.384096983119158e-19,-4.813105594803901e-18
	1.192057614513652e-19,-2.406684505365617e-18
	1.611059862379209e-18,1.093295265929781e-11
	-5.582114681601524e-07,-1.105649375949599e-12
	3.167453913086554e-03,-3.372316672293551e-10
4		2.511886431509581e+00,4.645225908352378e-310
	-1.331808375424425e-13,-4.847439508955660e-07
	-8.398073324961368e-01,8.609755982394711e-08
	9.999999999994418e-01,-1.391930095917304e-18
	7.203916066175828e-01,1.033152305666500e-08
	3.197949040016939e+01,-6.441956408046355e-06
	0.000000000000000e+00,0.000000000000000e+00
	-5.571884972074661e+02,1.248078468826563e-04
	0.000000000000000e+00,0.000000000000000e+00
	1.000000000000000e+00,0.000000000000000e+00
	0.000000000000000e+00,0.000000000000000e+00
	0.000000000000000e+00,0.000000000000000e+00
	-1.744360871245195e-08,-1.138111760125800e-10
	-7.027787928885180e-09,-4.022859819419733e-11
	-3.513891655847040e-09,-2.011427715925835e-11
	-2.624430383383497e-11,-2.736308072404635e-13
	-1.049878964184337e-11,-2.507609919676051e-13
	-5.249670391539013e-12,-1.253831145845261e-13
	9.994058471844235e-10,6.973235584187919e-12
	3.998376895866386e-10,2.657908923537300e-12
	1.999191046598993e-10,1.328956931059965e-12
	-1.741761135160155e-08,-1.066027798839872e-10
	-6.975802402179222e-09,-4.339370155807590e-11
	-3.487903582939968e-09,-2.169687154889483e-11
	2.251223950022628e-11,1.822251976617280e-13
	9.004913472040884e-12,1.064630031199572e-13
	4.502464835273621e-12,5.323157203072777e-14
	1.003869097979333e-09,5.644890863618420e-11
	4.087636528413237e-10,2.321823349738365e-11
	2.223916173235164e-10,1.286331699663729e-11
	-2.174126739791578e-11,-5.329357971519492e-13
	-1.492162446544547e-12,1.288824315532317e-12
	1.726371501470338e-11,1.898612777529066e-12
	2.651794407481941e-19,-1.514810934641377e-17
	3.778539078712552e-19,-6.059340981259051e-18
	1.889283998264081e-19,-3.029836301132083e-18
	2.553357808532111e-18,1.376377192873246e-11
	-5.582114681601524e-07,-1.391930095917304e-12
	3.167453913086528e-03,-4.245495155367449e-10
5		3.162277660168380e+00,4.645225908352378e-310
	-2.110774027872815e-13,-6.102564779959112e-07
	-8.398073324961048e-01,1.083904059558253e-07
	9.999999999994418e-01,-1.752336169191364e-18
	7.203916066175881e-01,1.300661691857128e-08
	3.197949040016866e+01,-8.109942623759658e-06
	0.000000000000000e+00,0.000000000000000e+00
	-5.571884972074513e+02,1.571237700318879e-04
	0.000000000000000e+00,0.000000000000000e+00
	1.000000000000000e+00,0.000000000000000e+00
	0.000000000000000e+00,0.000000000000000e+00
	0.000000000000000e+00,0.000000000000000e+00
	-1.744360872740717e-08,-1.432797816284120e-10
	-7.027787934244386e-09,-5.064480454753060e-11
	-3.513891658526643e-09,-2.532237465566064e-11
	-2.624430385024209e-11,-3.444807766847577e-13
	-1.049878965687964e-11,-3.156893850747190e-13
	-5.249670399057324e-12,-1.578479891603537e-13
	9.994058480111198e-10,8.778783479361317e-12
	3.998376899099988e-10,3.346109086075514e-12
	1.999191048215800e-10,1.673057651691343e-12
	-1.741761136546893e-08,-1.342049485638480e-10
	-6.975802407666224e-09,-5.462943360327250e-11
	-3.487903585683473e-09,-2.731474294933689e-11
	2.251223959191761e-11,2.294079320055339e-13
	9.004913657588577e-12,1.340289800435723e-13
	4.502464928048275e-12,6.701457873920306e-14
	1.003869104579232e-09,7.106496555013790e-11
	4.087636554748863e-10,2.923002416682619e-11
	2.223916186297904e-10,1.619395664703020e-11
	-2.174126748954601e-11,-6.709264178892966e-13
	-1.492162488609425e-12,1.622533682161894e-12
	1.726371498315245e-11,2.390211872788477e-12
	4.202810904224437e-19,-1.907033985048443e-17
	5.988580863299605e-19,-7.628258416474793e-18
	2.994313347474354e-19,-3.814337951292930e-18
	4.046799408659884e-18,1.732756224322015e-11
	-5.582114681601524e-07,-1.752336169191364e-12
	3.167453913086495e-03,-5.344761736741035e-10
6		3.981071705534974e+00,4.645225908352378e-310
	-3.345351387599217e-13,-7.682673878610188e-07
	-8.398073324960560e-01,1.364554364524539e-07
	9.999999999994418e-01,-2.206060533401010e-18
	7.203916066175964e-01,1.637436056025805e-08
	3.197949040016752e+01,-1.020981285724335e-05
	0.000000000000000e+00,0.000000000000000e+00
	-5.571884972074283e+02,1.978071068900395e-04
	0.000000000000000e+00,0.000000000000000e+00
	1.000000000000000e+00,0.000000000000000e+00
	0.000000000000000e+00,0.000000000000000e+00
	0.000000000000000e+00,0.000000000000000e+00
	-1.744360875110960e-08,-1.803785580883194e-10
	-7.027787942738159e-09,-6.375803142023236e-11
	-3.513891662773532e-09,-3.187898094098240e-11
	-2.624430387624567e-11,-4.336756036430080e-13
	-1.049878968071055e-11,-3.974293891042150e-13
	-5.249670410973055e-12,-1.987188447545680e-13
	9.994058493213460e-10,1.105183360680639e-11
	3.998376904224904e-10,4.212501759095677e-12
	1.999191050778268e-10,2.106254793110834e-12
	-1.741761138744726e-08,-1.689540201355505e-10
	-6.975802416362542e-09,-6.877438219507927e-11
	-3.487903590031640e-09,-3.438722401554442e-11
	2.251223973723858e-11,2.888074752688541e-13
	9.004913951661849e-12,1.687324888935797e-13
	4.502465075086190e-12,8.436635613540050e-14
	1.003869115039367e-09,8.946549101934250e-11
	4.087636596488018e-10,3.679842021097389e-11
	2.223916207000953e-10,2.038698354043879e-11
	-2.174126763477021e-11,-8.446463169247257e-13
	-1.492162555277794e-12,2.042648883965636e-12
	1.726371493314757e-11,3.009098466225598e-12
	6.661006391306285e-19,-2.400813555636646e-17
	9.491261042745927e-19,-9.603408520754624e-18
	4.745666840507294e-19,-4.801967052315101e-18
	6.413744834040499e-18,2.181410843243429e-11
	-5.582114681601524e-07,-2.206060533401010e-12
	3.167453913086437e-03,-6.728656370368256e-10
7		5.011872336272725e+00,4.645225908352378e-310
	-5.302024640596011e-13,-9.671913376308797e-07
	-8.398073324959769e-01,1.717872165274184e-07
	9.999999999994418e-01,-2.777265665454642e-18
	7.203916066176097e-01,2.061409861118267e-08
	3.197949040016572e+01,-1.285339285564576e-05
	0.000000000000000e+00,0.000000000000000e+00
	-5.571884972073923e+02,2.490243934973416e-04
	0.000000000000000e+00,0.000000000000000e+00
	1.000000000000000e+00,0.000000000000000e+00
	0.000000000000000e+00,0.000000000000000e+00
	0.000000000000000e+00,0.000000000000000e+00
	-1.744360878867544e-08,-2.270831505201609e-10
	-7.027787956199886e-09,-8.026660596089622e-11
	-3.513891669504399e-09,-4.013325920870204e-11
	-2.624430391745853e-11,-5.459652379013066e-13
	-1.049878971847998e-11,-5.003339573370810e-13
	-5.249670429858205e-12,-2.501722034638822e-13
	9.994058513979144e-10,1.391343417452857e-11
	3.998376912347349e-10,5.303225511752892e-12
	1.999191054839506e-10,2.651617682760351e-12
	-1.741761142228058e-08,-2.127005093734142e-10
	-6.975802430145281e-09,-8.658181742582426e-11
	-3.487903596923022e-09,-4.329095015422486e-11
	2.251223996755679e-11,3.635870697319543e-13
	9.004914417736582e-12,2.124216180631519e-13
	4.502465308125585e-12,1.062109496392061e-13
	1.003869131617563e-09,1.126303801228868e-10
	4.087636662640122e-10,4.632646631747261e-11
	2.223916239813076e-10,2.566569164888661e-11
	-2.174126786493500e-11,-1.063346712354595e-12
	-1.492162660940007e-12,2.571542587397476e-12
	1.726371485389521e-11,3.788230525722375e-12
	1.055698368452040e-18,-3.022445215528300e-17
	1.504263501451811e-18,-1.208997533093959e-17
	7.521375069207810e-19,-6.045318500919572e-18
	1.016510052565288e-17,2.746233544122355e-11
	-5.582114681601524e-07,-2.777265665454642e-12
	3.167453913086341e-03,-8.470876491886980e-10
8		6.309573444801935e+00,4.645225908352378e-310
	-8.403142759140872e-13,-1.217621753010542e-06
	-8.398073324958526e-01,2.162672923076736e-07
	9.999999999994418e-01,-3.496370321544115e-18
	7.203916066176308e-01,2.595161258283592e-08
	3.197949040016284e+01,-1.618146289374465e-05
	0.000000000000000e+00,0.000000000000000e+00
	-5.571884972073346e+02,3.135031371304051e-04
	0.000000000000000e+00,0.000000000000000e+00
	1.000000000000000e+00,0.000000000000000e+00
	0.000000000000000e+00,0.000000000000000e+00
	0.000000000000000e+00,0.000000000000000e+00
	-1.744360884821326e-08,-2.858807487800808e-10
	-7.027787977535280e-09,-1.010496699626308e-10
	-3.513891680172101e-09,-5.052477987595195e-11
	-2.624430398277654e-11,-6.873295119501011e-13
	-1.049878977834050e-11,-6.298831332750968e-13
	-5.249670459789158e-12,-3.149481442651754e-13
	9.994058546890533e-10,1.751597584763786e-11
	3.998376925220556e-10,6.676365361220269e-12
	1.999191061276135e-10,3.338188883189485e-12
	-1.741761147748765e-08,-2.677740763517273e-10
	-6.975802451989444e-09,-1.090000501566825e-10
	-3.487903607845122e-09,-5.450007724986298e-11
	2.251224033258656e-11,4.577290014850925e-13
	9.004915156415254e-12,2.674229729936323e-13
	4.502465677468136e-12,1.337116635113348e-13
	1.003869157892234e-09,1.417932476767263e-10
	4.087636767484139e-10,5.832156568568783e-11
	2.223916291816785e-10,3.231119142805429e-11
	-2.174126822972163e-11,-1.338674197730405e-12
	-1.492162828403347e-12,3.237380310785885e-12
	1.726371472828866e-11,4.769099674566507e-12
	1.673169157451715e-18,-3.805033130197922e-17
	2.384096983118370e-18,-1.522037777928459e-17
	1.192057614513258e-18,-7.610605386799699e-18
	1.611059862378878e-17,3.457303195416911e-11
	-5.582114681601524e-07,-3.496370321544115e-12
	3.167453913086196e-03,-1.066420167580571e-09
9		7.943282347242818e+00,4.645225908352378e-310
	-1.331808375423919e-12,-1.532894966818001e-06
	-8.398073324956545e-01,2.722643900258852e-07
	9.999999999994418e-01,-4.401669446834489e-18
	7.203916066176638e-01,3.267114455754348e-08
	3.197949040015828e+01,-2.037125483693674e-05
	0.000000000000000e+00,0.000000000000000e+00
	-5.571884972072430e+02,3.946770660106023e-04
	0.000000000000000e+00,0.000000000000000e+00
	1.000000000000000e+00,0.000000000000000e+00
	0.000000000000000e+00,0.000000000000000e+00
	0.000000000000000e+00,0.000000000000000e+00
	-1.744360894257434e-08,-3.599025393819286e-10
	-7.027788011349600e-09,-1.272139973693482e-10
	-3.513891697079269e-09,-6.360692931113174e-11
	-2.624430408629857e-11,-8.652965888698608e-13
	-1.049878987321302e-11,-7.929758829403645e-13
	-5.249670507226514e-12,-3.964962222127512e-13
	9.994058599051566e-10,2.205130710696106e-11
	3.998376945623214e-10,8.405046011661395e-12
	1.999191071477503e-10,4.202530814415460e-12
	-1.741761156498495e-08,-3.371075893388461e-10
	-6.975802486610107e-09,-1.372229330290649e-10
	-3.487903625155484e-09,-6.861153219458690e-11
	2.251224091111974e-11,5.762466716842682e-13
	9.004916327142044e-12,3.366655763982224e-13
	4.502466262836625e-12,1.683330110471870e-13
	1.003869199534781e-09,1.785071227210298e-10
	4.087636933650709e-10,7.342250109732513e-11
	2.223916374237108e-10,4.067737997411859e-11
	-2.174126880786945e-11,-1.685290965634821e-12
	-1.492163093814845e-12,4.075620340891004e-12
	1.726371452921571e-11,6.003940771691528e-12
	2.651794407480547e-18,-4.790252985350266e-17
	3.778539078710566e-18,-1.916132157497218e-17
	1.889283998263088e-18,-9.581185126346587e-18
	2.553357808531285e-17,4.352486848986965e-11
	-5.582114681601524e-07,-4.401669446834490e-12
	3.167453913085967e-03,-1.342543448616848e-09
10		1.000000000000001e+01,4.645225908352378e-310
	-2.110774027871540e-12,-1.929800427337898e-06
	-8.398073324953410e-01,3.427605593299032e-07
	9.999999999994418e-01,-5.541373520937239e-18
	7.203916066177164e-01,4.113053411584082e-08
	3.197949040015105e+01,-2.564589038434895e-05
	0.000000000000000e+00,0.000000000000000e+00
	-5.571884972070982e+02,4.968689878529983e-04
	0.000000000000000e+00,0.000000000000000e+00
	1.000000000000000e+00,0.000000000000000e+00
	0.000000000000000e+00,0.000000000000000e+00
	0.000000000000000e+00,0.000000000000000e+00
	-1.744360909212659e-08,-4.530904525970428e-10
	-7.027788064941686e-09,-1.601529340241463e-10
	-3.513891723875324e-09,-8.007637967595776e-11
	-2.624430425036995e-11,-1.089343864466671e-12
	-1.049879002357584e-11,-9.982974899731691e-13
	-5.249670582409662e-12,-4.991591698238332e-13
	9.994058681721240e-10,2.776095088022439e-11
	3.998376977959248e-10,1.058132601137746e-11
	1.999191087645581e-10,5.290672836114518e-12
	-1.741761170365885e-08,-4.243933107272367e-10
	-6.975802541480162e-09,-1.727534374711762e-10
	-3.487903652590558e-09,-8.637680142187770e-11
	2.251224182803305e-11,7.254515784441693e-13
	9.004918182618969e-12,4.238368494020446e-13
	4.502467190583162e-12,2.119187052501279e-13
	1.003869265533770e-09,2.247271529797141e-10
	4.087637197006974e-10,9.243345242888782e-11
	2.223916504864519e-10,5.120978733461547e-11
	-2.174126972417200e-11,-2.121655622902503e-12
	-1.492163514463721e-12,5.130902015974001e-12
	1.726371421370634e-11,7.558513608390467e-12
	4.202810904220937e-18,-6.030571381828297e-17
	5.988580863294620e-18,-2.412267707159958e-17
	2.994313347471861e-18,-1.206199863932584e-17
	4.046799408657807e-17,5.479456298688496e-11
	-5.582114681601524e-07,-5.541373520937239e-12
	3.167453913085601e-03,-1.690162063901277e-09
11		1.258925411794168e+01,4.645225908352378e-310
	-3.345351387596014e-12,-2.429474797665610e-06
	-8.398073324948490e-01,4.315099783005555e-07
	9.999999999994418e-01,-6.976175941749860e-18
	7.203916066177998e-01,5.178027459899653e-08
	3.197949040013961e+01,-3.228626311293350e-05
	0.000000000000000e+00,0.000000000000000e+00
	-5.571884972068684e+02,6.255209951403627e-04
	0.000000000000000e+00,0.000000000000000e+00
	1.000000000000000e+00,0.000000000000000e+00
	0.000000000000000e+00,0.000000000000000e+00
	0.000000000000000e+00,0.000000000000000e+00
	-1.744360932915092e-08,-5.704070846155017e-10
	-7.027788149879416e-09,-2.016205984163075e-10
	-3.513891766344209e-09,-1.008101892584987e-10
	-2.624430451040570e-11,-1.371402673158350e-12
	-1.049879026188491e-11,-1.256782078656819e-12
	-5.249670701566948e-12,-6.284041634209357e-13
	9.994058812743838e-10,3.494896651867172e-11
	3.998377029208407e-10,1.332110020619713e-11
	1.999191113270260e-10,6.660562478871399e-12
	-1.741761192344216e-08,-5.342795234697584e-10
	-6.975802628443341e-09,-2.174836924071732e-10
	-3.487903696072223e-09,-1.087419502994578e-10
	2.251224328124272e-11,9.132894271276254e-13
	9.004921123351716e-12,5.335789801630043e-13
	4.502468660962332e-12,2.667898432719004e-13
	1.003869370135118e-09,2.829147236062171e-10
	4.087637614398526e-10,1.163668221625544e-10
	2.223916711895012e-10,6.446930260810337e-11
	-2.174127117641384e-11,-2.671006178743387e-12
	-1.492164181147330e-12,6.459422933337792e-12
	1.726371371365765e-11,9.515604856996613e-12
	6.661006391297497e-18,-7.592039898714526e-17
	9.491261042733407e-18,-3.036865598910333e-17
	4.745666840501034e-18,-1.518515901567533e-17
	6.413744834035279e-17,6.898226777232331e-11
	-5.582114681601524e-07,-6.976175941749860e-12
	3.167453913085021e-03,-2.127787972295292e-09
12		1.584893192461115e+01,4.645225908352378e-310
	-5.302024640587964e-12,-3.058527560092105e-06
	-8.398073324940620e-01,5.432388771240362e-07
	9.999999999994418e-01,-8.782485170213293e-18
	7.203916066179320e-01,6.518750352215211e-08
	3.197949040012148e+01,-4.064599708472255e-05
	0.000000000000000e+00,0.000000000000000e+00
	-5.571884972065047e+02,7.874842763925303e-04
	0.000000000000000e+00,0.000000000000000e+00
	1.000000000000000e+00,0.000000000000000e+00
	0.000000000000000e+00,0.000000000000000e+00
	0.000000000000000e+00,0.000000000000000e+00
	-1.744360970480918e-08,-7.180999738894103e-10
	-7.027788284496651e-09,-2.538252948872669e-10
	-3.513891833652858e-09,-1.269125090252187e-10
	-2.624430492253438e-11,-1.726493675039880e-12
	-1.049879063957924e-11,-1.582194895907083e-12
	-5.249670890418478e-12,-7.911139702071294e-13
	9.994059020400670e-10,4.399814206627463e-11
	3.998377110432853e-10,1.677027156262900e-11
	1.999191153882639e-10,8.385151361489410e-12
	-1.741761227177523e-08,-6.726180690969221e-10
	-6.975802766270691e-09,-2.737957470220464e-10
	-3.487903764986018e-09,-1.368980045599607e-10
	2.251224558442483e-11,1.149763268130057e-12
	9.004925784099031e-12,6.717361373184271e-13
	4.502470991356271e-12,3.358685132995811e-13
	1.003869535917084e-09,3.561685349183899e-10
	4.087638275919557e-10,1.464971495100933e-10
	2.223917040016233e-10,8.116204333395118e-11
	-2.174127347806182e-11,-3.362597553470116e-12
	-1.492165237769543e-12,8.131931676309383e-12
	1.726371292113393e-11,1.197943676306870e-11
	1.055698368449832e-17,-9.557812631227690e-17
	1.504263501448664e-17,-3.823188237019090e-17
	7.521375069192078e-18,-1.911698737874628e-17
	1.016510052563977e-16,8.684352986172322e-11
	-5.582114681601524e-07,-8.782485170213293e-12
	3.167453913084107e-03,-2.678726349231530e-09
13		1.995262314968881e+01,4.645225908352378e-310
	-8.403142759120651e-12,-3.850458068067526e-06
	-8.398073324928168e-01,6.838972270834234e-07
	9.999999999994418e-01,-1.105649375948155e-17
	7.203916066181415e-01,8.206620471505154e-08
	3.197949040009272e+01,-5.117027861762471e-05
	0.000000000000000e+00,0.000000000000000e+00
	-5.571884972059274e+02,9.913839669380025e-04
	0.000000000000000e+00,0.000000000000000e+00
	1.000000000000000e+00,0.000000000000000e+00
	0.000000000000000e+00,0.000000000000000e+00
	0.000000000000000e+00,0.000000000000000e+00
	-1.744361030018739e-08,-9.040343053371663e-10
	-7.027788497850582e-09,-3.195471138893902e-10
	-3.513891940329874e-09,-1.597733826862353e-10
	-2.624430557571439e-11,-2.173526760806383e-12
	-1.049879123818444e-11,-1.991865360865501e-12
	-5.249671189727993e-12,-9.959534807176521e-13
	9.994059349514556e-10,5.539037911891364e-11
	3.998377239164920e-10,2.111252103286455e-11
	1.999191218248920e-10,1.055628013071039e-11
	-1.741761282384593e-08,-8.467759796171718e-10
	-6.975802984712313e-09,-3.446884235668815e-10
	-3.487903874207018e-09,-1.723443767642783e-10
	2.251224923472248e-11,1.447466195788762e-12
	9.004933170885721e-12,8.456656932746716e-13
	4.502474684781760e-12,4.228334064063936e-13
	1.003869798663791e-09,4.483896194898598e-10
	4.087639324359731e-10,1.844289842735076e-10
	2.223917560053320e-10,1.021769588261743e-10
	-2.174127712592810e-11,-4.233259509682160e-12
	-1.492166912402927e-12,1.023749543428862e-11
	1.726371166506848e-11,1.508121736001575e-11
	1.673169157446167e-17,-1.203257455018158e-16
	2.384096983110464e-17,-4.813110745791291e-17
	1.192057614509305e-17,-2.406687080880998e-17
	1.611059862375584e-16,1.093295265927402e-10
	-5.582114681601524e-07,-1.105649375948155e-11
	3.167453913082655e-03,-3.372316672288195e-09
14		2.511886431509582e+01,4.645225908352378e-310
	-1.331808375418840e-11,-4.847439508927639e-06
	-8.398073324908433e-01,8.609755982257854e-07
	9.999999999994418e-01,-1.391930095914417e-17
	7.203916066184739e-01,1.033152305644667e-07
	3.197949040004716e+01,-6.441956408022744e-05
	0.000000000000000e+00,0.000000000000000e+00
	-5.571884972050137e+02,1.248078468821776e-03
	0.000000000000000e+00,0.000000000000000e+00
	1.000000000000000e+00,0.000000000000000e+00
	0.000000000000000e+00,0.000000000000000e+00
	0.000000000000000e+00,0.000000000000000e+00
	-1.744361124379828e-08,-1.138111760120772e-09
	-7.027788835993790e-09,-4.022859819401641e-10
	-3.513892109401557e-09,-2.011427715916788e-10
	-2.624430661093493e-11,-2.736308072387389e-12
	-1.049879218690975e-11,-2.507609919660246e-12
	-5.249671664101605e-12,-1.253831145837358e-12
	9.994059871124925e-10,6.973235584161490e-11
	3.998377443191501e-10,2.657908923527580e-11
	1.999191320262602e-10,1.328956931055105e-11
	-1.741761369881907e-08,-1.066027798835227e-09
	-6.975803330918967e-09,-4.339370155789414e-10
	-3.487904047310645e-09,-2.169687154880395e-10
	2.251225502005438e-11,1.822251976576185e-12
	9.004944878153660e-12,1.064630031114187e-12
	4.502480538466674e-12,5.323157202645850e-13
	1.003870215089260e-09,5.644890863597052e-10
	4.087640986025429e-10,2.321823349729901e-10
	2.223918384256561e-10,1.286331699659652e-10
	-2.174128290740652e-11,-5.329357971421741e-12
	-1.492169566517970e-12,1.288824315537027e-11
	1.726370967433891e-11,1.898612777532974e-11
	2.651794407466613e-17,-1.514811655927060e-16
	3.778539078690712e-17,-6.059351258830075e-17
	1.889283998253161e-17,-3.029841439960864e-17
	2.553357808523008e-16,1.376377192868500e-10
	-5.582114681601524e-07,-1.391930095914417e-11
	3.167453913080344e-03,-4.245495155356764e-09
15		3.162277660168382e+01,4.645225908352378e-310
	-2.110774027858781e-11,-6.102564779903198e-06
	-8.398073324877187e-01,1.083904059530948e-06
	9.999999999994418e-01,-1.752336169185606e-17
	7.203916066190001e-01,1.300661691813569e-07
	3.197949039997494e+01,-8.109942623712539e-05
	0.000000000000000e+00,0.000000000000000e+00
	-5.571884972035646e+02,1.571237700309325e-03
	0.000000000000000e+00,0.000000000000000e+00
	1.000000000000000e+00,0.000000000000000e+00
	0.000000000000000e+00,0.000000000000000e+00
	0.000000000000000e+00,0.000000000000000e+00
	-1.744361273932073e-08,-1.432797816274087e-09
	-7.027789371914644e-09,-5.064480454716958e-10
	-3.513892377362110e-09,-2.532237465548013e-10
	-2.624430825164903e-11,-3.444807766813182e-12
	-1.049879369053806e-11,-3.156893850715668e-12
	-5.249672415933135e-12,-1.578479891587776e-12
	9.994060697821641e-10,8.778783479308582e-11
	3.998377766551839e-10,3.346109086056118e-11
	1.999191481943392e-10,1.673057651681645e-11
	-1.741761508555799e-08,-1.342049485629211e-09
	-6.975803879619522e-09,-5.462943360290986e-10
	-3.487904321661397e-09,-2.731474294915556e-10
	2.251226418918751e-11,2.294079319973341e-12
	9.004963432922916e-12,1.340289800265357e-12